REMARK SMILES C[C@H](CS)C(=O)N1CCC[C@H]1C(=O)O
REMARK SMILES IDX 5 1 6 2 2 3 1 4 3 5 4 6 7 8 8 9 11 10 9 11 10 12 12 13 13 14
REMARK SMILES IDX 14 15
REMARK H PARENT 4 7 14 16
REMARK Flexibility Score: inf
ROOT
ATOM      1  C   UNL A   1       3.346  -0.799   1.109  1.00  0.00     0.226 C 
ATOM      2  O   UNL A   1       2.545  -1.716   1.175  1.00  0.00    -0.275 OA
ENDROOT
BRANCH   1   3
ATOM      3  C   UNL A   1       2.800   0.606   0.865  1.00  0.00     0.085 C 
ATOM      4  C   UNL A   1       1.837   1.006   1.991  1.00  0.00     0.019 C 
BRANCH   3   5
ATOM      5  C   UNL A   1       2.138   0.728  -0.524  1.00  0.00     0.079 C 
BRANCH   5   6
ATOM      6  S   UNL A   1       0.680  -0.349  -0.763  1.00  0.00    -0.179 SA
ATOM      7  H   UNL A   1      -0.220   0.624  -0.286  1.00  0.00     0.102 HD
ENDBRANCH   5   6
ENDBRANCH   3   5
ENDBRANCH   1   3
BRANCH   1   8
ATOM      8  N   UNL A   1       4.689  -1.053   1.261  1.00  0.00    -0.329 N 
ATOM      9  C   UNL A   1       5.714  -0.034   1.120  1.00  0.00     0.120 C 
ATOM     10  C   UNL A   1       5.293  -2.364   1.518  1.00  0.00     0.195 C 
ATOM     11  C   UNL A   1       7.000  -0.831   0.944  1.00  0.00     0.024 C 
ATOM     12  C   UNL A   1       6.753  -2.003   1.854  1.00  0.00     0.039 C 
BRANCH  10  13
ATOM     13  C   UNL A   1       4.655  -3.160   2.655  1.00  0.00     0.326 C 
ATOM     14  O   UNL A   1       5.210  -3.252   3.740  1.00  0.00    -0.250 OA
BRANCH  13  15
ATOM     15  O   UNL A   1       3.533  -3.884   2.452  1.00  0.00    -0.480 OA
ATOM     16  H   UNL A   1       3.128  -3.979   1.579  1.00  0.00     0.296 HD
ENDBRANCH  13  15
ENDBRANCH  10  13
ENDBRANCH   1   8
TORSDOF 6
